 DBCSR| CPU Multiplication driver                                           XSMM
 DBCSR| Multrec recursion limit                                              512
 DBCSR| Multiplication stack size                                           1000
 DBCSR| Maximum elements for images                                    UNLIMITED
 DBCSR| Multiplicative factor virtual images                                   1
 DBCSR| Use multiplication densification                                       T
 DBCSR| Multiplication size stacks                                             3
 DBCSR| Use memory pool for CPU allocation                                     F
 DBCSR| Number of 3D layers                                               SINGLE
 DBCSR| Use MPI memory allocation                                              F
 DBCSR| Use RMA algorithm                                                      F
 DBCSR| Use Communication thread                                               T
 DBCSR| Communication thread load                                             87
 DBCSR| MPI: My node id                                                        0
 DBCSR| MPI: Number of nodes                                                   1
 DBCSR| OMP: Current number of threads                                         1
 DBCSR| OMP: Max number of threads                                             1
 DBCSR| Split modifier for TAS multiplication algorithm                  1.0E+00


  **** **** ******  **  PROGRAM STARTED AT               2024-07-20 23:22:29.075
 ***** ** ***  *** **   PROGRAM STARTED ON                                 mu003
 **    ****   ******    PROGRAM STARTED BY                                 jxzhu
 ***** **    ** ** **   PROGRAM PROCESS ID                                 33590
  **** **  *******  **  PROGRAM STARTED IN /public/home/jxzhu/tutorial/cp2k-dft-
                                           user/01.density_mixing

 CP2K| version string:                                       CP2K version 2022.1
 CP2K| source code revision number:                                  git:2caeb6f
 CP2K| cp2kflags: omp libint fftw3 libxc elpa parallel mpi3 scalapack cosma xsmm
 CP2K|             plumed2 spglib mkl sirius libvori libbqb
 CP2K| is freely available from                            https://www.cp2k.org/
 CP2K| Program compiled at                           Mon Jul 3 17:37:06 CST 2023
 CP2K| Program compiled on                                                 mu003
 CP2K| Program compiled for                                                local
 CP2K| Data directory path                             /public/home/jxzhu/basis/
 CP2K| Input file name                                                 input.inp
 
 GLOBAL| Force Environment number                                              1
 GLOBAL| Basis set file name                                      GTH_BASIS_SETS
 GLOBAL| Potential file name                                           POTENTIAL
 GLOBAL| MM Potential file name                                     MM_POTENTIAL
 GLOBAL| Coordinate file name                                          coord.xyz
 GLOBAL| Method name                                                        CP2K
 GLOBAL| Project name                                                     H2O-32
 GLOBAL| Run type                                                   ENERGY_FORCE
 GLOBAL| FFT library                                                       FFTW3
 GLOBAL| Diagonalization library                                            ELPA
 GLOBAL| Minimum number of eigenvectors for ELPA usage                        16
 GLOBAL| Orthonormality check for eigenvectors                          DISABLED
 GLOBAL| Matrix multiplication library                                     COSMA
 GLOBAL| All-to-all communication in single precision                          F
 GLOBAL| FFTs using library dependent lengths                                  F
 GLOBAL| Grid backend                                                       AUTO
 GLOBAL| Global print level                                                  LOW
 GLOBAL| MPI I/O enabled                                                       T
 GLOBAL| Total number of message passing processes                             1
 GLOBAL| Number of threads for this process                                    1
 GLOBAL| This output is from process                                           0
 GLOBAL| Stack size for threads created by OpenMP (OMP_STACKSIZE)        default
 GLOBAL| CPU model name                 Intel(R) Xeon(R) Gold 6338 CPU @ 2.00GHz
 GLOBAL| CPUID                                                              1003

 MEMORY| system memory details [Kb]
 MEMORY|                        rank 0           min           max       average
 MEMORY| MemTotal            527829756     527829756     527829756     527829756
 MEMORY| MemFree             457817420     457817420     457817420     457817420
 MEMORY| Buffers                    28            28            28            28
 MEMORY| Cached                9258440       9258440       9258440       9258440
 MEMORY| Slab                 40825712      40825712      40825712      40825712
 MEMORY| SReclaimable          1276816       1276816       1276816       1276816
 MEMORY| MemLikelyFree       468352704     468352704     468352704     468352704

 
 GENERATE|  Preliminary Number of Bonds generated:                             0
 GENERATE|  Achieved consistency in connectivity generation.

 *******************************************************************************
 *******************************************************************************
 **                                                                           **
 **     #####                         ##              ##                      **
 **    ##   ##            ##          ##              ##                      **
 **   ##     ##                       ##            ######                    **
 **   ##     ##  ##   ##  ##   #####  ##  ##   ####   ##    #####    #####    **
 **   ##     ##  ##   ##  ##  ##      ## ##   ##      ##   ##   ##  ##   ##   **
 **   ##  ## ##  ##   ##  ##  ##      ####     ###    ##   ######   ######    **
 **    ##  ###   ##   ##  ##  ##      ## ##      ##   ##   ##       ##        **
 **     #######   #####   ##   #####  ##  ##  ####    ##    #####   ##        **
 **           ##                                                    ##        **
 **                                                                           **
 **                                                ... make the atoms dance   **
 **                                                                           **
 **            Copyright (C) by CP2K developers group (2000-2022)             **
 **                      J. Chem. Phys. 152, 194103 (2020)                    **
 **                                                                           **
 *******************************************************************************


 TOTAL NUMBERS AND MAXIMUM NUMBERS

  Total number of            - Atomic kinds:                                   2
                             - Atoms:                                         96
                             - Shell sets:                                   192
                             - Shells:                                       352
                             - Primitive Cartesian functions:                480
                             - Cartesian basis functions:                    768
                             - Spherical basis functions:                    736

  Maximum angular momentum of- Orbital basis functions:                        2
                             - Local part of the GTH pseudopotential:          2
                             - Non-local part of the GTH pseudopotential:      0


 SCF PARAMETERS         Density guess:                                    ATOMIC
                        --------------------------------------------------------
                        max_scf:                                             300
                        max_scf_history:                                       0
                        max_diis:                                              4
                        --------------------------------------------------------
                        eps_scf:                                        1.00E-07
                        eps_scf_history:                                0.00E+00
                        eps_diis:                                       1.00E-01
                        eps_eigval:                                     1.00E-05
                        --------------------------------------------------------
                        level_shift [a.u.]:                             0.000000
                        --------------------------------------------------------
                        Mixing method:                            BROYDEN_MIXING
                                                charge density mixing in g-space
                        --------------------------------------------------------
                        No outer SCF

 Number of electrons:                                                        256
 Number of occupied orbitals:                                                128
 Number of molecular orbitals:                                               128

 Number of orbital functions:                                                736
 Number of independent orbital functions:                                    736

 Extrapolation method: initial_guess


 SCF WAVEFUNCTION OPTIMIZATION

  Step     Update method      Time    Convergence         Total energy    Change
  ------------------------------------------------------------------------------
     1 NoMix/Diag. 0.40E+00    1.1     1.00921519      -546.5226212675 -5.47E+02
     2 Broy./Diag. 0.40E+00    1.8     0.30136039      -509.8593375965  3.67E+01
     3 Broy./Diag. 0.40E+00    2.0     0.02416673      -549.4108054704 -3.96E+01
     4 Broy./Diag. 0.40E+00    1.9     0.02609901      -549.7912263675 -3.80E-01
     5 Broy./Diag. 0.40E+00    1.9     0.00200271      -550.0506788891 -2.59E-01
     6 Broy./Diag. 0.40E+00    1.9     0.00338443      -550.0822408632 -3.16E-02
     7 Broy./Diag. 0.40E+00    1.9     0.00102896      -550.0800072110  2.23E-03
     8 Broy./Diag. 0.40E+00    1.9     0.00107839      -550.1098794035 -2.99E-02
     9 Broy./Diag. 0.40E+00    1.9     0.00026082      -550.1184127699 -8.53E-03
    10 Broy./Diag. 0.40E+00    1.9     0.00010832      -550.1168288955  1.58E-03
    11 Broy./Diag. 0.40E+00    1.8     0.00005459      -550.1143095138  2.52E-03
    12 Broy./Diag. 0.40E+00    1.8     0.00001158      -550.1140644975  2.45E-04
    13 Broy./Diag. 0.40E+00    1.9     0.00000976      -550.1146485637 -5.84E-04
    14 Broy./Diag. 0.40E+00    1.9     0.00000146      -550.1147289682 -8.04E-05
    15 Broy./Diag. 0.40E+00    1.9     0.00000290      -550.1146968184  3.21E-05
    16 Broy./Diag. 0.40E+00    1.8     0.00000084      -550.1146691468  2.77E-05
    17 Broy./Diag. 0.40E+00    1.8     0.00000062      -550.1146579761  1.12E-05
    18 Broy./Diag. 0.40E+00    1.9     0.00000022      -550.1146632086 -5.23E-06
    19 Broy./Diag. 0.40E+00    1.9     0.00000011      -550.1146687468 -5.54E-06
    20 Broy./Diag. 0.40E+00    1.9     0.00000004      -550.1146691702 -4.23E-07

  *** SCF run converged in    20 steps ***


  Electronic density on regular grids:       -255.9999999911        0.0000000089
  Core density on regular grids:              255.9999999914       -0.0000000086
  Total charge density on r-space grids:        0.0000000004
  Total charge density g-space grids:           0.0000000004

  Overlap energy of the core charge distribution:               0.00000281300415
  Self energy of the core charge distribution:              -1402.65249746927475
  Core Hamiltonian energy:                                    412.77025660472344
  Hartree energy:                                             573.22608173327501
  Exchange-correlation energy:                               -133.45851285195016

  Total energy:                                              -550.11466917022221

 ENERGY| Total FORCE_EVAL ( QS ) energy [a.u.]:             -550.114668263077760

 ATOMIC FORCES in [a.u.]

 # Atom   Kind   Element          X              Y              Z
      1      1      O          -0.01781384    -0.01978941    -0.04018450
      2      1      O           0.02929598    -0.04448283     0.00199627
      3      1      O          -0.02056310     0.00478330    -0.02689868
      4      1      O          -0.04019351    -0.03285192     0.00051229
      5      1      O          -0.03870357     0.00557074     0.02586578
      6      1      O          -0.02409314    -0.05334128     0.00407425
      7      1      O          -0.03534416    -0.00298248     0.00176651
      8      1      O          -0.01066940    -0.04836174     0.02010496
      9      1      O          -0.03682877    -0.04126147    -0.03000880
     10      1      O          -0.00513650    -0.03952972    -0.02232382
     11      1      O          -0.00842814    -0.01706688    -0.04093762
     12      1      O          -0.04436456    -0.02099213    -0.03384436
     13      1      O          -0.04954690    -0.00902620    -0.00676670
     14      1      O          -0.00313311    -0.03560939     0.01817309
     15      1      O          -0.02787224    -0.02527983    -0.01841796
     16      1      O          -0.00608144    -0.02370370    -0.03754201
     17      1      O          -0.03364410    -0.00135771     0.03031151
     18      1      O          -0.03532293    -0.00800371    -0.03482405
     19      1      O           0.04071945    -0.00246290     0.04109673
     20      1      O           0.00265982    -0.01520307     0.03290300
     21      1      O           0.00013672    -0.04243091    -0.00903743
     22      1      O          -0.04803746     0.00219648    -0.00956520
     23      1      O          -0.04376767    -0.01825002    -0.01759288
     24      1      O          -0.01844211    -0.04539431    -0.00088215
     25      1      O          -0.04333179    -0.02431973    -0.01567406
     26      1      O          -0.03262634     0.02993772     0.00279036
     27      1      O          -0.02887534    -0.05084939    -0.01113850
     28      1      O          -0.00919142     0.03211553    -0.00033076
     29      1      O          -0.03852930     0.02613237    -0.00584990
     30      1      O           0.02225921    -0.01892788    -0.00690624
     31      1      O          -0.01633813     0.05293368    -0.00603464
     32      1      O          -0.04560139    -0.01277066    -0.02970358
     33      2      H          -0.01752094     0.02377458     0.01212213
     34      2      H           0.03508509     0.00214556     0.02523718
     35      2      H          -0.03653927     0.02545374     0.02218111
     36      2      H           0.01354841     0.01404466    -0.02361110
     37      2      H           0.01490790    -0.02643327     0.00397174
     38      2      H           0.00915776     0.02262036     0.02736833
     39      2      H           0.02654273     0.00237316    -0.02408684
     40      2      H           0.00531092     0.02987747     0.02413578
     41      2      H           0.02737738    -0.02042769    -0.00197220
     42      2      H           0.00810472     0.01425110    -0.01995435
     43      2      H           0.04014682     0.01075760     0.01310182
     44      2      H          -0.01884859     0.03080533    -0.01798116
     45      2      H           0.01875111    -0.01287961     0.01495800
     46      2      H           0.02454943     0.02200013    -0.00648940
     47      2      H          -0.03016337     0.02393925    -0.02395599
     48      2      H           0.02629375     0.02474832     0.00456625
     49      2      H           0.01004607     0.01923303    -0.02395339
     50      2      H           0.01570131     0.01337832     0.03679163
     51      2      H           0.00152585     0.01881969     0.04717770
     52      2      H           0.00179257     0.02019959    -0.02281231
     53      2      H          -0.00195033    -0.01603813     0.02312298
     54      2      H           0.01715809     0.03222981     0.01155911
     55      2      H           0.04785571    -0.01533326     0.00632397
     56      2      H          -0.00703868     0.03935563     0.01908246
     57      2      H           0.02231088     0.02963384    -0.00794036
     58      2      H           0.03214891    -0.02233487     0.01954068
     59      2      H          -0.00719777     0.00307994    -0.02664694
     60      2      H           0.00943374     0.04098449     0.00406445
     61      2      H           0.03767713     0.01265409    -0.02565423
     62      2      H          -0.00554698     0.01400659     0.04821882
     63      2      H          -0.00169434     0.04776592     0.01109011
     64      2      H           0.00222496    -0.01802340     0.03109949
     65      2      H           0.02643677     0.03650557    -0.01532809
     66      2      H           0.01174993    -0.03053705    -0.01267094
     67      2      H           0.03599898    -0.01408687    -0.01349521
     68      2      H          -0.00191583     0.01798062     0.04587062
     69      2      H          -0.02068774     0.02775786    -0.02609212
     70      2      H          -0.02036163    -0.03150064    -0.01812382
     71      2      H           0.01270244    -0.01052300    -0.03572873
     72      2      H          -0.01775526     0.02510933     0.00213444
     73      2      H          -0.02558450     0.03461207     0.00235981
     74      2      H           0.03423916     0.00515001     0.01325759
     75      2      H           0.01644152     0.02521778     0.01048605
     76      2      H           0.03015868    -0.02327478    -0.00278421
     77      2      H           0.02976970    -0.00472342    -0.01373673
     78      2      H           0.01833409     0.01898327     0.02443657
     79      2      H           0.03734969     0.00990961     0.00977194
     80      2      H          -0.01401050     0.03242023    -0.00680795
     81      2      H           0.01721071     0.02538868    -0.01453310
     82      2      H           0.02646068     0.00084495     0.03334282
     83      2      H           0.01930119    -0.00073649    -0.01413170
     84      2      H           0.01201799    -0.02979926     0.01686703
     85      2      H          -0.00176100     0.03624462     0.02157632
     86      2      H           0.03143803     0.01431773    -0.01071252
     87      2      H           0.03253233    -0.01013827     0.01799970
     88      2      H          -0.02349729    -0.01736508    -0.01829842
     89      2      H           0.01302678    -0.04424886     0.00257605
     90      2      H           0.02588648     0.01125565     0.00597917
     91      2      H          -0.00712997     0.02437454    -0.02122799
     92      2      H          -0.01178915    -0.00386750     0.03267348
     93      2      H           0.03068997    -0.03250075    -0.01647293
     94      2      H          -0.01270041    -0.01526295     0.01919367
     95      2      H           0.00538546     0.03836498     0.00123943
     96      2      H           0.03254573    -0.02537309     0.02529789
 SUM OF ATOMIC FORCES          -0.00377518    -0.00341800     0.00070450     0.00514112

 -------------------------------------------------------------------------------
 -                                                                             -
 -                                DBCSR STATISTICS                             -
 -                                                                             -
 -------------------------------------------------------------------------------
 COUNTER                                    TOTAL       BLAS       SMM       ACC
 flops     5 x     5 x   128            279283200       0.0%    100.0%      0.0%
 flops     5 x    13 x   128            357477120       0.0%    100.0%      0.0%
 flops    13 x     5 x   128            357826560       0.0%    100.0%      0.0%
 flops    13 x    13 x   128            477894144       0.0%    100.0%      0.0%
 flops inhomo. stacks                           0       0.0%      0.0%      0.0%
 flops total                         1.472481E+09       0.0%    100.0%      0.0%
 flops max/rank                      1.472481E+09       0.0%    100.0%      0.0%
 matmuls inhomo. stacks                         0       0.0%      0.0%      0.0%
 matmuls total                              97671       0.0%    100.0%      0.0%
 number of processed stacks                   168       0.0%    100.0%      0.0%
 average stack size                                     0.0     581.4       0.0
 marketing flops                     2.912158E+09
 -------------------------------------------------------------------------------
 # multiplications                             21
 max memory usage/rank             895.721472E+06
 # max total images/rank                        1
 # max 3D layers                                1
 # MPI messages exchanged                       0
 -------------------------------------------------------------------------------
 -                                                                             -
 -                      DBCSR MESSAGE PASSING PERFORMANCE                      -
 -                                                                             -
 -------------------------------------------------------------------------------
 ROUTINE             CALLS      AVE VOLUME [Bytes]
 MP_Bcast                5                     12.
 MP_Allreduce          175                     10.
 MP_Alltoall           448                1853894.
 MP_ISend               84                   7680.
 MP_IRecv               84                   7680.
 -------------------------------------------------------------------------------

 -------------------------------------------------------------------------------
 -                                                                             -
 -                                DBM STATISTICS                               -
 -                                                                             -
 -------------------------------------------------------------------------------
    M  x    N  x    K                                          COUNT     PERCENT
 -------------------------------------------------------------------------------

 -------------------------------------------------------------------------------
 -                                                                             -
 -                                GRID STATISTICS                              -
 -                                                                             -
 -------------------------------------------------------------------------------
 LP    KERNEL             BACKEND                              COUNT     PERCENT
 1     collocate ortho    REF                                 490392      21.63%
 1     integrate ortho    REF                                 484230      21.36%
 0     collocate ortho    REF                                 360990      15.92%
 0     integrate ortho    REF                                 343800      15.16%
 2     integrate ortho    REF                                 247192      10.90%
 2     collocate ortho    REF                                 235032      10.37%
 3     integrate ortho    REF                                  53552       2.36%
 3     collocate ortho    REF                                  44478       1.96%
 4     integrate ortho    REF                                   4618       0.20%
 4     collocate ortho    REF                                   2625       0.12%
 5     integrate ortho    REF                                    125       0.01%
 0     collocate general  REF                                     96       0.00%
 1     integrate general  REF                                     96       0.00%
 -------------------------------------------------------------------------------

 MEMORY| Estimated peak process memory [MiB]                                 870

 -------------------------------------------------------------------------------
 -                                                                             -
 -                         MESSAGE PASSING PERFORMANCE                         -
 -                                                                             -
 -------------------------------------------------------------------------------

 ROUTINE             CALLS      AVE VOLUME [Bytes]
 MP_Group                4
 MP_Bcast               40                      4.
 MP_Allreduce          507                     98.
 MP_Sync                24
 -------------------------------------------------------------------------------


 -------------------------------------------------------------------------------
 -                                                                             -
 -                           R E F E R E N C E S                               -
 -                                                                             -
 -------------------------------------------------------------------------------
 
 CP2K version 2022.1, the CP2K developers group (2022).
 CP2K is freely available from https://www.cp2k.org/ .

 Kuehne,Thomas D.; Iannuzzi,Marcella; Del Ben,Mauro;
 Rybkin,Vladimir V.; Seewald,Patrick; Stein,Frederick; Laino,Teodoro;
 Khaliullin,Rustam Z.; Schuett,Ole; Schiffmann,Florian; Golze,Dorothea;
 Wilhelm,Jan; Chulkov,Sergey; Bani-Hashemian,Mohammad Hossein;
 Weber,Valery; Borstnik,Urban; Taillefumier,Mathieu;
 Jakobovits,Alice Shoshana; Lazzaro,Alfio; Pabst,Hans; Mueller,Tiziano;
 Schade,Robert; Guidon,Manuel; Andermatt,Samuel; Holmberg,Nico;
 Schenter,Gregory K.; Hehn,Anna; Bussy,Augustin; Belleflamme,Fabian;
 Tabacchi,Gloria; Gloess,Andreas; Lass,Michael; Bethune,Iain;
 Mundy,Christopher J.; Plessl,Christian; Watkins,Matt;
 VandeVondele,Joost; Krack,Matthias; Hutter,Juerg. 
 The Journal of Chemical Physics, 152 (19), (2020). 
 CP2K: An electronic structure and molecular dynamics software package -
 Quickstep: Efficient and accurate electronic structure calculations.
 https://doi.org/10.1063/5.0007045

 Schuett, Ole; Messmer, Peter; Hutter, Juerg; VandeVondele, Joost. 
 Electronic Structure Calculations on Graphics Processing Units, John
 Wiley & Sons, Ltd, 173-190 (2016). 
 GPU-Accelerated Sparse Matrix-Matrix Multiplication for
 Linear Scaling Density Functional Theory.
 https://doi.org/10.1002/9781118670712.ch8

 Heinecke, A; Henry, G; Hutchinson, M; Pabst, H. 
 Proceedings of Intl. Supercomputing Conference, 981-991 (2016). 
 LIBXSMM: Accelerating Small Matrix Multiplications
 by Runtime Code Generation.
 https://doi.org/10.1109/SC.2016.83

 Borstnik, U; VandeVondele, J; Weber, V; Hutter, J. 
 PARALLEL COMPUTING, 40 (5-6), 47-58 (2014). 
 Sparse matrix multiplication: The distributed block-compressed sparse
 row library.
 https://doi.org/10.1016/j.parco.2014.03.012

 Hutter, J; Iannuzzi, M; Schiffmann, F; VandeVondele, J. 
 WIREs Comput Mol Sci., 4 (1), 15-25 (2014). 
 CP2K: atomistic simulations of condensed matter systems.
 https://doi.org/10.1002/wcms.1159

 Marek, A; Blum, V; Johanni, R; Havu, V; Lang, B; Auckenthaler, T;
 Heinecke, A; Bungartz, H; Lederer, H. 
 Journal of Physics: Condensed Matter, 26 (21), (2014). 
 The ELPA library: scalable parallel eigenvalue solutions for
 electronic structure
 theory and computational science.
 https://doi.org/10.1088/0953-8984/26/21/213201

 Krack, M. 
 THEORETICAL CHEMISTRY ACCOUNTS, 114 (1-3), 145-152 (2005). 
 Pseudopotentials for H to Kr optimized for gradient-corrected
 exchange-correlation functionals.
 https://doi.org/10.1007/s00214-005-0655-y

 VandeVondele, J; Krack, M; Mohamed, F; Parrinello, M; Chassaing, T;
 Hutter, J. COMPUTER PHYSICS COMMUNICATIONS, 167 (2), 103-128 (2005). 
 QUICKSTEP: Fast and accurate density functional calculations using a
 mixed Gaussian and plane waves approach.
 https://doi.org/10.1016/j.cpc.2004.12.014

 Frigo, M; Johnson, SG. 
 PROCEEDINGS OF THE IEEE, 93 (2), 216-231 (2005). 
 The design and implementation of FFTW3.
 https://doi.org/10.1109/JPROC.2004.840301

 Hartwigsen, C; Goedecker, S; Hutter, J. 
 PHYSICAL REVIEW B, 58 (7), 3641-3662 (1998). 
 Relativistic separable dual-space Gaussian pseudopotentials from H to Rn.
 https://doi.org/10.1103/PhysRevB.58.3641

 Lippert, G; Hutter, J; Parrinello, M. 
 MOLECULAR PHYSICS, 92 (3), 477-487 (1997). 
 A hybrid Gaussian and plane wave density functional scheme.
 https://doi.org/10.1080/002689797170220

 Goedecker, S; Teter, M; Hutter, J. 
 PHYSICAL REVIEW B, 54 (3), 1703-1710 (1996). 
 Separable dual-space Gaussian pseudopotentials.
 https://doi.org/10.1103/PhysRevB.54.1703


 -------------------------------------------------------------------------------
 -                                                                             -
 -                                T I M I N G                                  -
 -                                                                             -
 -------------------------------------------------------------------------------
 SUBROUTINE                       CALLS  ASD         SELF TIME        TOTAL TIME
                                MAXIMUM       AVERAGE  MAXIMUM  AVERAGE  MAXIMUM
 CP2K                                 1  1.0    0.010    0.010   40.453   40.453
 qs_forces                            1  2.0    0.000    0.000   40.105   40.105
 qs_energies                          1  3.0    0.000    0.000   38.674   38.674
 scf_env_do_scf                       1  4.0    0.000    0.000   37.288   37.288
 scf_env_do_scf_inner_loop           20  5.0    0.001    0.001   37.288   37.288
 rebuild_ks_matrix                   21  6.9    0.000    0.000   17.684   17.684
 qs_ks_build_kohn_sham_matrix        21  7.9    0.003    0.003   17.684   17.684
 qs_ks_update_qs_env                 20  6.0    0.000    0.000   16.654   16.654
 sum_up_and_integrate                21  8.9    0.104    0.104   15.779   15.779
 integrate_v_rspace                  21  9.9    0.025    0.025   15.674   15.674
 qs_rho_update_rho_low               21  6.0    0.000    0.000   15.456   15.456
 calculate_rho_elec                  21  7.0    0.181    0.181   15.456   15.456
 grid_integrate_task_list            21 10.9   15.073   15.073   15.073   15.073
 grid_collocate_task_list            21  8.0   14.161   14.161   14.161   14.161
 qs_scf_new_mos                      20  6.0    0.000    0.000    3.282    3.282
 gspace_mixing                       19  6.0    0.148    0.148    2.644    2.644
 pw_transfer                        272  9.9    0.013    0.013    2.293    2.293
 eigensolver                         20  7.0    0.002    0.002    2.244    2.244
 fft_wrap_pw1pw2                    230 10.9    0.001    0.001    2.168    2.168
 broyden_mixing                      19  7.0    2.163    2.163    2.164    2.164
 fft_wrap_pw1pw2_150                104 11.2    0.326    0.326    1.977    1.977
 cp_fm_diag_elpa                     20  8.0    0.000    0.000    1.809    1.809
 cp_fm_diag_elpa_base                20  9.0    1.732    1.732    1.809    1.809
 density_rs2pw                       21  8.0    0.001    0.001    1.114    1.114
 qs_ks_update_qs_env_forces           1  3.0    0.000    0.000    1.066    1.066
 init_scf_run                         1  4.0    0.000    0.000    0.987    0.987
 scf_env_initial_rho_setup            1  5.0    0.000    0.000    0.941    0.941
 qs_vxc_create                       21  8.9    0.000    0.000    0.867    0.867
 xc_vxc_pw_create                    21  9.9    0.165    0.165    0.866    0.866
 fft3d_s                            231 12.8    0.802    0.802    0.815    0.815
 -------------------------------------------------------------------------------

 The number of warnings for this run is : 0
 
 -------------------------------------------------------------------------------
  **** **** ******  **  PROGRAM ENDED AT                 2024-07-20 23:23:10.077
 ***** ** ***  *** **   PROGRAM RAN ON                                     mu003
 **    ****   ******    PROGRAM RAN BY                                     jxzhu
 ***** **    ** ** **   PROGRAM PROCESS ID                                 33590
  **** **  *******  **  PROGRAM STOPPED IN /public/home/jxzhu/tutorial/cp2k-dft-
                                           user/01.density_mixing
